<?xml version="1.0"?>
<VTKFile type="UnstructuredGrid"  version="0.1"  >
<UnstructuredGrid>
<Piece  NumberOfPoints="2592" NumberOfCells="4963">
<Points>
<DataArray  type="Float64"  NumberOfComponents="3"  format="ascii">0 0 0  0 0.41 0  2.2 0.41 0  2.2 0 0  0.1 0.1 0  0.1 0.3 0  0.8 0.3 0  0.8 0.1 0  0.25 0.2 0  0.249743 0.205058 0  0.248976 0.210065 0  0.247707 0.214968 0  0.245948 0.219718 0  0.243717 0.224265 0  0.241038 0.228563 0  0.237938 0.232569 0  0.234448 0.23624 0  0.230605 0.239539 0  0.226448 0.242432 0  0.22202 0.24489 0  0.217365 0.246888 0  0.212533 0.248404 0  0.207571 0.249423 0  0.202532 0.249936 0  0.197468 0.249936 0  0.192429 0.249423 0  0.187467 0.248404 0  0.182635 0.246888 0  0.17798 0.24489 0  0.173552 0.242432 0  0.169395 0.239539 0  0.165552 0.23624 0  0.162062 0.232569 0  0.158962 0.228563 0  0.156283 0.224265 0  0.154052 0.219718 0  0.152293 0.214968 0  0.151024 0.210065 0  0.150257 0.205058 0  0.15 0.2 0  0.150257 0.194942 0  0.151024 0.189935 0  0.152293 0.185032 0  0.154052 0.180282 0  0.156283 0.175735 0  0.158962 0.171437 0  0.162062 0.167431 0  0.165552 0.16376 0  0.169395 0.160461 0  0.173552 0.157568 0  0.17798 0.15511 0  0.182635 0.153112 0  0.187467 0.151596 0  0.192429 0.150577 0  0.197468 0.150064 0  0.202532 0.150064 0  0.207571 0.150577 0  0.212533 0.151596 0  0.217365 0.153112 0  0.22202 0.15511 0  0.226448 0.157568 0  0.230605 0.160461 0  0.234448 0.16376 0  0.237938 0.167431 0  0.241038 0.171437 0  0.243717 0.175735 0  0.245948 0.180282 0  0.247707 0.185032 0  0.248976 0.189935 0  0.249743 0.194942 0  1.1 0 0  1.1 0.41 0  0.1 0.2 0  0.45 0.1 0  0.45 0.3 0  0.55 0 0  0.275 0.1 0  0.275 0.3 0  0.275 0 0  0.55 0.41 0  0 0.205 0  0.825 0 0  0.825 0.41 0  0.275 0.41 0  0.150003 0.168836 0  0.141765 0.191079 0  0.228591 0.251512 0  0.1875 0.1 0  0.141765 0.208921 0  0.150003 0.231164 0  0.166344 0.248355 0  0.1875 0.3 0  0.228591 0.148488 0  0.246588 0.163938 0  0.258839 0.197016 0  0.249997 0.231164 0  0.161625 0.155298 0  0.155755 0.165752 0  0.149766 0.175359 0  0.14412 0.197166 0  0.145834 0.185976 0  0.231963 0.245923 0  0.211859 0.257709 0  0.222065 0.251417 0  0.2 0.141085 0  0.145834 0.214024 0  0.155755 0.234248 0  0.149766 0.224641 0  0.163555 0.242454 0  0.172847 0.248921 0  0.188141 0.257709 0  0.231963 0.154077 0  0.222065 0.148583 0  0.240553 0.161451 0  0.255247 0.179539 0  0.247483 0.170404 0  0.255306 0.191527 0  0.257034 0.214767 0  0.25588 0.202834 0  0.242701 0.24059 0  0.244245 0.234248 0  0.250234 0.224641 0  0.176767 0.14586 0  0.168037 0.154077 0  0.16011 0.162081 0  0.148389 0.180885 0  0.145034 0.202788 0  0.23585 0.24176 0  0.205661 0.255665 0  0.216476 0.252513 0  0.194339 0.144335 0  0.211859 0.142291 0  0.148389 0.219115 0  0.16011 0.237919 0  0.178296 0.250577 0  0.194339 0.255665 0  0.216476 0.147487 0  0.23585 0.15824 0  0.249412 0.175762 0  0.25328 0.186205 0  0.254402 0.208334 0  0.251611 0.219115 0  0.18325 0.146614 0  0.17329 0.151879 0  0.2 0.255037 0  0.205661 0.144335 0  0.183566 0.252379 0  0.188921 0.14609 0  0.1 0.15 0  0.128185 0.169954 0  0.132151 0.198298 0  0.206976 0.277617 0  0.148994 0.239949 0  0.154488 0.250349 0  0.168591 0.260165 0  0.240184 0.145305 0  0.258497 0.165584 0  0.266803 0.18801 0  0.267673 0.205171 0  0.240184 0.254695 0  0.250577 0.239149 0  0.261679 0.228321 0  0.162666 0.143321 0  0.221094 0.261265 0  0.191409 0.132676 0  0.221094 0.138735 0  0.206471 0.13637 0  0.153927 0.159164 0  0.143047 0.176619 0  0.138442 0.200974 0  0.23125 0.3 0  0.137374 0.216597 0  0.143047 0.223381 0  0.1 0.25 0  0.156883 0.243946 0  0.173764 0.255696 0  0.247477 0.153216 0  0.23845 0.151918 0  0.254295 0.170977 0  0.260102 0.186655 0  0.261143 0.207196 0  0.23845 0.248082 0  0.256953 0.223381 0  0.168264 0.147244 0  0.19445 0.266423 0  0.202145 0.261528 0  0.189716 0.139299 0  0.23125 0.1 0  0.137374 0.183403 0  0.179357 0.256081 0  0.180958 0.138073 0  0.176033 0.26355 0  0.153595 0.148906 0  0.11625 0.202442 0  0.13151 0.208538 0  0.26403 0.174229 0  0.267276 0.215426 0  0.248471 0.248988 0  0.156508 0.125823 0  0.170902 0.137524 0  0.264678 0.181268 0  0.263787 0.221574 0  0.276832 0.176599 0  0.274694 0.228684 0  0.272169 0.182613 0  0.271393 0.221827 0  0.285163 0.187873 0  0.280681 0.211327 0  0.276011 0.191801 0  0.281336 0.221265 0  0.126037 0.264334 0  0.128185 0.230046 0  0.138902 0.234341 0  0.257854 0.136333 0  0.254445 0.26653 0  0.136874 0.154582 0  0.27282 0.16251 0  0.266965 0.247802 0  0.284944 0.199986 0  0.126014 0.218699 0  0.250285 0.143311 0  0.152549 0.137049 0  0.21299 0.268539 0  0.291168 0.23675 0  0.298624 0.215135 0  0.241699 0.126403 0  0.263754 0.150327 0  0.14375 0.1 0  0.229937 0.279268 0  0.218439 0.278681 0  0.138916 0.165928 0  0.134413 0.254303 0  0.182491 0.128225 0  0.192484 0.115442 0  0.267947 0.237078 0  0.279594 0.239532 0  0.1 0.225 0  0.290636 0.208597 0  0.302976 0.194253 0  0.300543 0.204641 0  0.320173 0.20376 0  0.310704 0.211921 0  0.310234 0.201432 0  0.319331 0.184977 0  0.22461 0.270711 0  0.232198 0.262509 0  0.209375 0.3 0  0.129343 0.242677 0  0.143857 0.249314 0  0.147448 0.267545 0  0.301533 0.238657 0  0.114215 0.226838 0  0.292991 0.194073 0  0.298251 0.17939 0  0.3625 0.3 0  0.142573 0.143904 0  0.243113 0.265676 0  0.116845 0.255046 0  0.287651 0.247583 0  0.306697 0.221168 0  0.322004 0.222309 0  0.298528 0.228555 0  0.120795 0.139139 0  0.137132 0.125301 0  0.121875 0.3 0  0.220313 0.3 0  0.211754 0.288425 0  0.125485 0.251278 0  0.14375 0.3 0  0.116293 0.241989 0  0.298771 0.249619 0  0.277395 0.255907 0  0.131012 0.144593 0  0.146736 0.128687 0  0.146439 0.114219 0  0.225781 0.289939 0  0.225781 0.319389 0  0.214844 0.312008 0  0.198437 0.29172 0  0.166313 0.275049 0  0.109533 0.248815 0  0.1 0.275 0  0.1 0.2375 0  0.1 0.2625 0  0.122242 0.156453 0  0.130245 0.133732 0  0.121875 0.1 0  0.126277 0.123462 0  0.133645 0.112923 0  0.132457 0.119937 0  0.125646 0.115176 0  0.139639 0.117546 0  0.1 0.125 0  0.132812 0.1 0  0.112909 0.120312 0  0.118081 0.108999 0  0.12761 0.106823 0  0.110937 0.1 0  0.116406 0.09026000000000001 0  0.1 0.1125 0  0.138281 0.0806108 0  0.127344 0.08799170000000001 0  0.1375 0 0  0.253125 0.3 0  0.1369 0.264892 0  0.137977 0.282904 0  0.130972 0.274285 0  0 0.3075 0  0.11267 0.268371 0  0.0891705 0.13125 0  0.105469 0.0905242 0  0.08593629999999999 0.0855675 0  0.110469 0.07100289999999999 0  0.0862762 0.23125 0  0.0833807 0.279688 0  0.0791487 0.10625 0  0.119712 0.07869710000000001 0  0.239353 0.289079 0  0.124705 0.286534 0  0.08546810000000001 0.314565 0  0.12873 0.0584649 0  0.247849 0.27844 0  0.0891705 0.25625 0  0.0769669 0.265669 0  0.209375 0.1 0  0.324233 0.176216 0  0.264609 0.159155 0  0.255796 0.156897 0  0.201362 0.124646 0  0.215756 0.125349 0  0.205039 0.112216 0  0.198437 0.1 0  0.192969 0.0806108 0  0.203906 0.08799170000000001 0  0.220312 0.1 0  0.169758 0.124228 0  0.1 0.2125 0  0.308201 0.18441 0  0.313674 0.162555 0  0.314253 0.175132 0  0.324247 0.165294 0  0.3625 0.1 0  0.332704 0.18169 0  0.338147 0.190182 0  0.31875 0.1 0  0.337799 0.155633 0  0.316979 0.252721 0  0.333155 0.171615 0  0.333742 0.203036 0  0.32785 0.190792 0  0.315579 0.153317 0  0.273514 0.152528 0  0.348801 0.177363 0  0.323163 0.147709 0  0.306189 0.152431 0  0.287627 0.177337 0  0.282894 0.167257 0  0.294995 0.167726 0  0.283514 0.152877 0  0.304637 0.171321 0  0.291254 0.221792 0  0.119977 0.233766 0  0.207228 0.335088 0  0.309374 0.245699 0  0.26554 0.260398 0  0.255987 0.256217 0  0.274946 0.267332 0  0.31374 0.232952 0  0.26426 0.278078 0  0.291665 0.26494 0  0.30727 0.25631 0  0.327132 0.254734 0  0.31875 0.3 0  0.184671 0.268647 0  0.198437 0.312231 0  0.183008 0.279303 0  0.158871 0.266293 0  0.154339 0.277685 0  0.165625 0.3 0  0.144989 0.276628 0  0.148484 0.287588 0  0.162763 0.287436 0  0.173006 0.283669 0  0.18189 0.290382 0  0.176563 0.3 0  0.182031 0.315896 0  0.1375 0.41 0  0.167475 0.332723 0  0.171094 0.31077 0  0.109394 0.235217 0  0.130257 0.160984 0  0.1 0.175 0  0.140611 0.107958 0  0.117844 0.12931 0  0.1 0.1375 0  0.110512 0.136869 0  0.11334 0.14848 0  0.08886860000000001 0.14375 0  0 0.1025 0  0.1 0.1625 0  0.0598995 0.222547 0  0.0860223 0.2125 0  0.0891747 0.11875 0  0.242188 0.3 0  0.247656 0.319389 0  0.236719 0.312008 0  0.132812 0.3 0  0.138281 0.312008 0  0.127344 0.319389 0  0.154722 0.31231 0  0.110937 0.3 0  0.120156 0.276479 0  0.238695 0.274576 0  0.25045 0.289229 0  0.263797 0.291632 0  0.272221 0.138517 0  0.228643 0.127967 0  0.23201 0.138236 0  0.20625 0 0  0.220312 0.0877695 0  0.213139 0.116545 0  0.223932 0.118128 0  0.165625 0.1 0  0.179471 0.115566 0  0.167676 0.112117 0  0.185916 0.109037 0  0.176563 0.1 0  0.171094 0.0806108 0  0.182031 0.08799170000000001 0  0.156523 0.107772 0  0.159429 0.1168 0  0.107369 0.20625 0  0.115841 0.213748 0  0.286737 0.256937 0  0.321978 0.242895 0  0.345543 0.239679 0  0.334214 0.24461 0  0.329658 0.232612 0  0.34862 0.262228 0  0.337689 0.218651 0  0.338932 0.255451 0  0.318486 0.271726 0  0.175694 0.273121 0  0.332247 0.268032 0  0.365934 0.270188 0  0.154687 0.3 0  0.108437 0.128117 0  0.118456 0.166178 0  0.117024 0.18429 0  0.110464 0.173175 0  0.0778409 0.16875 0  0.0862762 0.15625 0  0.132983 0.290724 0  0.1449 0.33361 0  0.1 0.284375 0  0.116406 0.312008 0  0.109788 0.279688 0  0.08886860000000001 0.24375 0  0.105469 0.30974 0  0.108681 0.289939 0  0.07773480000000001 0.250273 0  0.106916 0.330263 0  0.0624948 0.25723 0  0.0682687 0.241503 0  0.267862 0.118844 0  0.327438 0.212408 0  0.294589 0.139329 0  0.322407 0.137541 0  0.358732 0.204418 0  0.277249 0.285306 0  0.323704 0.263685 0  0.314073 0.263149 0  0.303659 0.273931 0  0.340625 0.3 0  0.117503 0.292051 0  0.266239 0.129523 0  0.254517 0.123656 0  0.280862 0.126283 0  0.253125 0.1 0  0.245386 0.112324 0  0.303057 0.143518 0  0.294827 0.151417 0  0.30625 0.126413 0  0.327076 0.128476 0  0.31369 0.14283 0  0.31653 0.128779 0  0.338023 0.139849 0  0.314486 0.114146 0  0.346432 0.200203 0  0.34977
[...]
<PointData  Scalars="p"> 
	<DataArray  type="Float64"  Name="p"  format="ascii">
