<?xml version="1.0"?>
<VTKFile type="UnstructuredGrid"  version="0.1"  >
<UnstructuredGrid>
<Piece  NumberOfPoints="806" NumberOfCells="1501">
<Points>
<DataArray  type="Float64"  NumberOfComponents="3"  format="ascii">0 0 0  0 0.41 0  2.2 0.41 0  2.2 0 0  0.1 0.1 0  0.1 0.3 0  0.8 0.3 0  0.8 0.1 0  0.25 0.2 0  0.246985 0.217101 0  0.238302 0.232139 0  0.225 0.243301 0  0.208682 0.24924 0  0.191318 0.24924 0  0.175 0.243301 0  0.161698 0.232139 0  0.153015 0.217101 0  0.15 0.2 0  0.153015 0.182899 0  0.161698 0.167861 0  0.175 0.156699 0  0.191318 0.15076 0  0.208682 0.15076 0  0.225 0.156699 0  0.238302 0.167861 0  0.246985 0.182899 0  1.1 0 0  1.1 0.41 0  0.1 0.2 0  0.45 0.1 0  0.45 0.3 0  0.55 0 0  0.275 0.1 0  0.275 0.3 0  0.275 0 0  0.55 0.41 0  0 0.205 0  0.825 0 0  0.825 0.41 0  0.275 0.41 0  0.1 0.175 0  0.1875 0.1 0  0.269302 0.240012 0  0.133078 0.1882 0  0.1875 0.3 0  0.23125 0.1 0  0.278808 0.186104 0  0.23125 0.3 0  0.14375 0.1 0  0.1 0.15 0  0.192554 0.132938 0  0.248335 0.257604 0  0.14375 0.3 0  0.2 0.275417 0  0.265122 0.162402 0  0.274054 0.213058 0  0.174817 0.13081 0  0.136673 0.163438 0  0.209375 0.1 0  0.225183 0.26919 0  0.174817 0.26919 0  0.152935 0.14391 0  0.184733 0.116876 0  0.165625 0.1 0  0.154687 0.120039 0  0.1375 0 0  0.20625 0 0  0.154687 0.07598340000000001 0  0.1 0.25 0  0.116497 0.200474 0  0.133411 0.211741 0  0.1 0.225 0  0.137252 0.236228 0  0.23557 0.143808 0  0.203409 0.117717 0  0.198437 0.07598340000000001 0  0.220312 0.0805201 0  0.253125 0.3 0  0.209375 0.3 0  0.220312 0.286151 0  0.220313 0.338778 0  0.1375 0.41 0  0.184733 0.283124 0  0.153105 0.255888 0  0.165625 0.3 0  0.154688 0.279961 0  0.154687 0.338778 0  0.198437 0.324017 0  0.176563 0.31948 0  0.1 0.125 0  0.116218 0.1625 0  0.117898 0.143549 0  0.0556819 0.1875 0  0.11655 0.2375 0  0.128302 0.259666 0  0.217403 0.0395401 0  0.253125 0.07490719999999999 0  0.272094 0.272244 0  0.239277 0.282417 0  0.264063 0.338778 0  0.242188 0.324017 0  0.20625 0.41 0  0.135395 0.145839 0  0.129687 0.121458 0  0.07255250000000001 0.2125 0  0 0.1025 0  0.0556819 0.1375 0  0.07255250000000001 0.1625 0  0.132853 0.281048 0  0.121875 0.3 0  0.1 0.275 0  0.132812 0.324017 0  0.117319 0.273179 0  0.110937 0.31948 0  0.257282 0.282481 0  0.121875 0.1 0  0.110937 0.0612217 0  0.132812 0.0805201 0  0.07773720000000001 0.2375 0  0.07255250000000001 0.1125 0  0.06875000000000001 0.41 0  0.138347 0.0521996 0  0 0.3075 0  0.0543896 0.250571 0  0.0783409 0.2625 0  0 0.25625 0  0.0709362 0.329129 0  0.252486 0.24126 0  0.3625 0.1 0  0.263432 0.17918 0  0.266728 0.19787 0  0.370186 0.160286 0  0.261975 0.224824 0  0.21825 0.132291 0  0.221008 0.114639 0  0.245299 0.120731 0  0.253125 0.1 0  0.258629 0.13994 0  0.266869 0.119992 0  0.292589 0.142292 0  0.276002 0.135441 0  0.31875 0.1 0  0.296875 0.1 0  0.291741 0.120843 0  0.285937 0.06838379999999999 0  0.320693 0.130439 0  0.307812 0.07851619999999999 0  0.4125 0 0  0.340625 0.0753373 0  0.34375 0 0  0.265349 0.256591 0  0.3625 0.3 0  0.182097 0.3478 0  0.0364386 0.106322 0  0.0700503 0.070621 0  0.06875000000000001 0 0  0.0783494 0.2875 0  0.306022 0.2048 0  0.288081 0.164948 0  0.31608 0.158744 0  0.30086 0.183159 0  0.333795 0.186739 0  0.316689 0.190819 0  0.330803 0.21209 0  0.377239 0.20472 0  0.311226 0.232874 0  0.352981 0.201856 0  0.360034 0.246289 0  0.292304 0.254257 0  0.367446 0.183497 0  0.350241 0.225067 0  0.349123 0.169567 0  0.409964 0.176749 0  0.373143 0.22737 0  0.334025 0.24542 0  0.331057 0.168869 0  0.334755 0.147259 0  0.347042 0.122699 0  0.389657 0.186119 0  0.415344 0.223305 0  0.328115 0.22917 0  0.302926 0.278632 0  0.314159 0.254532 0  0.31875 0.3 0  0.335717 0.275321 0  0.39186 0.164205 0  0.39367 0.219386 0  0.383862 0.146546 0  0.420651 0.14199 0  0.362587 0.139046 0  0.409785 0.157672 0  0.40625 0.1 0  0.439894 0.166929 0  0.40823 0.200754 0  0.40625 0.3 0  0.389778 0.239758 0  0.346566 0.259709 0  0.372337 0.272105 0  0.384375 0.1 0  0.430996 0.190333 0  0.476933 0.194403 0  0.454539 0.18589 0  0.414014 0.120802 0  0.453036 0.223553 0  0.510765 0.192399 0  0.445843 0.204404 0  0.464283 0.208402 0  0.434215 0.219698 0  0.484972 0.214384 0  0.436792 0.254991 0  0.416998 0.254421 0  0.427913 0.237899 0  0.625 0.3 0  0.497655 0.244924 0  0.428125 0.3 0  0.470883 0.225512 0  0.463488 0.251411 0  0.439986 0.146965 0  0.494185 0.199069 0  0.5375 0.1 0  0.625 0.1 0  0.5375 0.3 0  0.492522 0.170995 0  0.436203 0.121608 0  0.512429 0.220473 0  0.458574 0.15425 0  0.424363 0.205919 0  0.428125 0.1 0  0.417187 0.0612217 0  0.439062 0.07598340000000001 0  0.456769 0.1315 0  0.401285 0.136423 0  0.394139 0.117604 0  0.373437 0.0682663 0  0.373437 0.117577 0  0.395312 0.07847850000000001 0  0.393541 0.0537394 0  0.413842 0.0306875 0  0.362762 0.0323203 0  0.314837 0.0346716 0  0.309454 0.115875 0  0.288157 0.201649 0  0.293853 0.221575 0  0.3095 0.143143 0  0.340625 0.1 0  0.296875 0.3 0  0.307812 0.338778 0  0.285938 0.324017 0  0.285557 0.284865 0  0.319891 0.282612 0  0.340625 0.3 0  0.4125 0.41 0  0.329687 0.324017 0  0.351379 0.152332 0  0.377295 0.253902 0  0.397086 0.258788 0  0.354717 0.281573 0  0.407573 0.23932 0  0.384375 0.3 0  0.395313 0.280807 0  0.351562 0.31948 0  0.373437 0.318952 0  0.395313 0.318944 0  0.348339 0.358942 0  0.428125 0.325259 0  0.384383 0.342558 0  0.34375 0.41 0  0.450077 0.275535 0  0.49375 0.3 0  0.471875 0.3 0  0.482812 0.273094 0  0.482812 0.338778 0  0.460937 0.324017 0  0.417187 0.281054 0  0.434534 0.28367 0  0.448522 0.241136 0  0.49375 0.1 0  0.48125 0 0  0.445636 0.0426541 0  0.0364726 0.218655 0  0.286699 0.237614 0  0.47939 0.241947 0  0.496463 0.227515 0  0.561365 0.203487 0  0.541824 0.254921 0  0.467045 0.28236 0  0.515625 0.275432 0  0.514946 0.34733 0  0.538434 0.150337 0  0.477755 0.158148 0  0.471063 0.176133 0  0.506294 0.140255 0  0.534501 0.205078 0  0.521401 0.242582 0  0.543408 0.229229 0  0.524753 0.260104 0  0.539335 0.277429 0  0.5290629999999999 0.220802 0  0.58816 0.244883 0  0.58125 0.3 0  0.563576 0.243368 0  0.559375 0.3 0  0.570312 0.272339 0  0.570312 0.338778 0  0.548437 0.324017 0  0.562516 0.223425 0  0.5942190000000001 0.211591 0  0.55363 0.267618 0  0.57514 0.255948 0  0.6001880000000001 0.272231 0  0.498644 0.282335 0  0.498962 0.263608 0  0.515625 0.3 0  0.526563 0.31948 0  0.504687 0.318952 0  0.48125 0.41 0  0.518482 0.167344 0  0.503879 0.157628 0  0.520898 0.149971 0  0.5273870000000001 0.124383 0  0.545067 0.178326 0  0.52726 0.183763 0  0.534586 0.166029 0  0.551835 0.161942 0  0.559234 0.139858 0  0.5709419999999999 0.179424 0  0.580364 0.197112 0  0.607007 0.171565 0  0.600634 0.191585 0  0.589291 0.176949 0  0.576981 0.15494 0  0.63931 0.192873 0  0.619425 0.208641 0  0.620153 0.186775 0  0.640543 0.155865 0  0.634707 0.174195 0  0.7125 0.1 0  0.642231 0.21698 0  0.7125 0.3 0  0.609329 0.231538 0  0.58125 0.1 0  0.607795 0.252567 0  0.632391 0.24379 0  0.628518 0.271887 0  0.584677 0.127902 0  0.66487 0.202006 0  0.62678 0.22652 0  0.471875 0.075539 0  0.585287 0.282411 0  0.603125 0.3 0  0.6875 0.41 0  0.592187 0.324017 0  0.544495 0.353448 0  0.515625 0.1 0  0.482692 0.129311 0  0.504687 0.118674 0  0.504687 0.06820710000000001 0  0.526563 0.0784594 0  0.4896 0.145335 0  0.471875 0.1 0  0.532428 0.0374812 0  0.559375 0.0753456 0  0.460937 0.114127 0  0.547365 0.194696 0  0.559375 0.1 0  0.614503 0.28441 0  0.603125 0.1 0  0.614062 0.127281 0  0.6875 0 0  0.592188 0.0682639 0  0.614062 0.0784777 0  0.61875 0 0  0.658994 0.178117 0  0.61899 0.0393932 0  0.724349 0.143332 0  0.66875 0.1 0  0.681422 0.185267 0  0.682884 0.141933 0  0.8 0.2 0  0.688264 0.163807 0  0.686802 0.207141 0  0.6670160000000001 0.157435 0  0.7228869999999999 0.186666 0  0.669361 0.260628 0  0.670587 0.239557 0  0.8 0.15 0  0.695676 0.231843 0  0.7019570000000001 0.191814 0  0.703419 0.14848 0  0.718538 0.164828 0  0.672201 0.2201 0  0.708583 0.124357 0  0.7187480000000001 0.214956 0  0.687454 0.249757 0  0.715055 0.251582 0  0.689806 0.274162 0  0.701622 0.215762 0  0.65538 0.129652 0  0.646875 0.0753429 0  0.690625 0.1 0  0.679687 0.119662 0  0.679688 0.06826459999999999 0  0.701562 0.07847800000000001 0  0.75625 0.1 0  0.739125 0.17208 0  0.743157 0.151836 0  0.762147 0.202209 0  0.74418 0.124523 0  0.7551639999999999 0.183685 0  0.8 0.175 0  0.74038 0.199837 0  0.747735 0.233395 0  0.749699 0.215379 0  0.8 0.225 0  0.75625 0 0  0.734375 0.0753429 0  0.726376 0.125611 0  0.734375 0.1 0  0.768763 0.160371 0  0.7787500000000001 0.185372 0  0.78681 0.1625 0  0.7800589999999999 0.142168 0  0.8 0.125 0  0.844318 0.1625 0  0.784375 0.1 0  0.792187 0.0723012 0  0.827448 0.1375 0  0.827448 0.1875 0  0.822263 0.1125 0  0.82737 0.0773291 0  0.869173 0.115809 0  0.614062 0.31948 0  0.66875 0.3 0  0.611167 0.360527 0  0.446226 0.369405 0  0.56541 0.11995 0  0.546737 0.125068 0  0.599155 0.117425 0  0.599776 0.146815 0  0.62104 0.147375 0  0.634552 0.131425 0  0.646875 0.1 0  0.635937 0.11384 0  0.650786 0.235331 0  0.648898 0.255456 0  0.703077 0.173916 0  0.714239 0.233001 0  0.730889 0.241578 0  0.75625 0.3 0  0.733135 0.262666 0  0.746623 0.251117 0  0.8 0.25 0  0.755223 0.274813 0  0.714301 0.273099 0  0.76447 0.243341 0  0.734222 0.286846 0  0.8 0.275 0  0.775355 0.263634 0  0.844318 0.2625 0  0.827448 0.2875 0  0.646875 0.3 0  0.646875 0.325093 0  0.700584 0.260808 0  0.672393 0.281471 0  0.690625 0.3 0  0.701562 0.338778 0  0.679687 0.324017 0  0.650123 0.277829 0  0.6543870000000001 0.146396 0  0.759452 0.138771 0  0.773104 0.120151 0  0.665484 0.368654 0  0.621707 0.163927 0  0.827955 0.225 0  0.781477 0.208023 0  0.767433 0.219673 0  0.783954 0.2375 0  0.9625 0.41 0  0.61875 0.41 0  0.880201 0.204907 0  0.835883 0.342407 0  0.176563 0.0805201 0  0 0.15375 0  0 0.05125 0  0.103125 0 0  0.58173 0.226516 0  0.522739 0.38411 0  0.481391 0.0410354 0  0.568923 0.0400294 0  0.656263 0.0392709 0  0.814896 0.0390105 0  0.115688 0.0295062 0  0.491294 0.371557 0  0.0847859 0.0410913 0  0.0413999 0.0378827 0  0.15
[...]
<PointData  Scalars="p"> 
<DataArray  type="Float64"  Name="p"  format="ascii">
